 Entering Link 1 = d:\softwares\Gaussian09\l1.exe PID=      7268.
  
 Copyright (c) 1988,1990,1992,1993,1995,1998,2003,2009,2010,
            Gaussian, Inc.  All Rights Reserved.
  
 This is part of the Gaussian(R) 09 program.  It is based on
 the Gaussian(R) 03 system (copyright 2003, Gaussian, Inc.),
 the Gaussian(R) 98 system (copyright 1998, Gaussian, Inc.),
 the Gaussian(R) 94 system (copyright 1995, Gaussian, Inc.),
 the Gaussian 92(TM) system (copyright 1992, Gaussian, Inc.),
 the Gaussian 90(TM) system (copyright 1990, Gaussian, Inc.),
 the Gaussian 88(TM) system (copyright 1988, Gaussian, Inc.),
 the Gaussian 86(TM) system (copyright 1986, Carnegie Mellon
 University), and the Gaussian 82(TM) system (copyright 1983,
 Carnegie Mellon University). Gaussian is a federally registered
 trademark of Gaussian, Inc.
  
 This software contains proprietary and confidential information,
 including trade secrets, belonging to Gaussian, Inc.
  
 This software is provided under written license and may be
 used, copied, transmitted, or stored only in accord with that
 written license.
  
 The following legend is applicable only to US Government
 contracts under FAR:
  
                    RESTRICTED RIGHTS LEGEND
  
 Use, reproduction and disclosure by the US Government is
 subject to restrictions as set forth in subparagraphs (a)
 and (c) of the Commercial Computer Software - Restricted
 Rights clause in FAR 52.227-19.
  
 Gaussian, Inc.
 340 Quinnipiac St., Bldg. 40, Wallingford CT 06492
  
  
 ---------------------------------------------------------------
 Warning -- This program may not be used in any manner that
 competes with the business of Gaussian, Inc. or will provide
 assistance to any competitor of Gaussian, Inc.  The licensee
 of this program is prohibited from giving any competitor of
 Gaussian, Inc. access to this program.  By using this program,
 the user acknowledges that Gaussian, Inc. is engaged in the
 business of creating and licensing software in the field of
 computational chemistry and represents and warrants to the
 licensee that it is not a competitor of Gaussian, Inc. and that
 it will not use this program in any manner prohibited above.
 ---------------------------------------------------------------
  

 Cite this work as:
 Gaussian 09, Revision B.01,
 M. J. Frisch, G. W. Trucks, H. B. Schlegel, G. E. Scuseria, 
 M. A. Robb, J. R. Cheeseman, G. Scalmani, V. Barone, B. Mennucci, 
 G. A. Petersson, H. Nakatsuji, M. Caricato, X. Li, H. P. Hratchian, 
 A. F. Izmaylov, J. Bloino, G. Zheng, J. L. Sonnenberg, M. Hada, 
 M. Ehara, K. Toyota, R. Fukuda, J. Hasegawa, M. Ishida, T. Nakajima, 
 Y. Honda, O. Kitao, H. Nakai, T. Vreven, J. A. Montgomery, Jr., 
 J. E. Peralta, F. Ogliaro, M. Bearpark, J. J. Heyd, E. Brothers, 
 K. N. Kudin, V. N. Staroverov, T. Keith, R. Kobayashi, J. Normand, 
 K. Raghavachari, A. Rendell, J. C. Burant, S. S. Iyengar, J. Tomasi, 
 M. Cossi, N. Rega, J. M. Millam, M. Klene, J. E. Knox, J. B. Cross, 
 V. Bakken, C. Adamo, J. Jaramillo, R. Gomperts, R. E. Stratmann, 
 O. Yazyev, A. J. Austin, R. Cammi, C. Pomelli, J. W. Ochterski, 
 R. L. Martin, K. Morokuma, V. G. Zakrzewski, G. A. Voth, 
 P. Salvador, J. J. Dannenberg, S. Dapprich, A. D. Daniels, 
 O. Farkas, J. B. Foresman, J. V. Ortiz, J. Cioslowski, 
 and D. J. Fox, Gaussian, Inc., Wallingford CT, 2010.
 
 ******************************************
 Gaussian 09:  IA32W-G09RevB.01 12-Aug-2010
                20-Dec-2019 
 ******************************************
 %chk=benzene.chk
 ---------------------------------------------
 #p geom=connectivity output=wfn sto-2g xalpha
 ---------------------------------------------
 1/38=1,57=2/1;
 2/12=2,17=6,18=5,40=1/2;
 3/6=2,11=2,16=1,25=1,30=1,74=300/1,2,3;
 4//1;
 5/5=2,38=5/2;
 6/7=2,8=2,9=2,10=2,28=1/1;
 99/5=1,6=100,9=1/99;
 Leave Link    1 at Fri Dec 20 10:41:35 2019, MaxMem=          0 cpu:       0.0
 (Enter d:\softwares\Gaussian09\l101.exe)
 -------------------
 Title Card Required
 -------------------
 Symbolic Z-matrix:
 Charge =  0 Multiplicity = 1
 C                    -1.05534  -0.9164    0.0001 
 C                     0.26645  -1.37153  -0.00035 
 C                     1.32145  -0.45544   0.00021 
 C                     1.05502   0.9165   -0.00005 
 C                    -0.26615   1.3718    0.00009 
 C                    -1.3215    0.45507  -0.00003 
 H                    -1.87632  -1.63062   0.00017 
 H                     0.47375  -2.43983   0.00001 
 H                     2.35009  -0.81033   0.0002 
 H                     1.87652   1.63021   0.00023 
 H                    -0.47355   2.44014  -0.00103 
 H                    -2.35002   0.81045   0.00055 
 
 NAtoms=     12 NQM=     12 NQMF=      0 NMic=      0 NMicF=      0 NTot=     12.
                    Isotopes and Nuclear Properties:
 (Nuclear quadrupole moments (NQMom) in fm**2, nuclear magnetic moments (NMagM)
  in nuclear magnetons)

  Atom         1           2           3           4           5           6           7           8           9          10
 IAtWgt=          12          12          12          12          12          12           1           1           1           1
 AtmWgt=  12.0000000  12.0000000  12.0000000  12.0000000  12.0000000  12.0000000   1.0078250   1.0078250   1.0078250   1.0078250
 NucSpn=           0           0           0           0           0           0           1           1           1           1
 AtZEff=   0.0000000   0.0000000   0.0000000   0.0000000   0.0000000   0.0000000   0.0000000   0.0000000   0.0000000   0.0000000
 NQMom=    0.0000000   0.0000000   0.0000000   0.0000000   0.0000000   0.0000000   0.0000000   0.0000000   0.0000000   0.0000000
 NMagM=    0.0000000   0.0000000   0.0000000   0.0000000   0.0000000   0.0000000   2.7928460   2.7928460   2.7928460   2.7928460

  Atom        11          12
 IAtWgt=           1           1
 AtmWgt=   1.0078250   1.0078250
 NucSpn=           1           1
 AtZEff=   0.0000000   0.0000000
 NQMom=    0.0000000   0.0000000
 NMagM=    2.7928460   2.7928460
 Leave Link  101 at Fri Dec 20 10:41:35 2019, MaxMem=   33554432 cpu:       0.0
 (Enter d:\softwares\Gaussian09\l202.exe)
                          Input orientation:                          
 ---------------------------------------------------------------------
 Center     Atomic      Atomic             Coordinates (Angstroms)
 Number     Number       Type             X           Y           Z
 ---------------------------------------------------------------------
      1          6           0       -1.055335   -0.916399    0.000103
      2          6           0        0.266446   -1.371526   -0.000350
      3          6           0        1.321448   -0.455437    0.000212
      4          6           0        1.055020    0.916495   -0.000052
      5          6           0       -0.266151    1.371799    0.000094
      6          6           0       -1.321503    0.455066   -0.000027
      7          1           0       -1.876318   -1.630619    0.000168
      8          1           0        0.473749   -2.439830    0.000005
      9          1           0        2.350085   -0.810333    0.000200
     10          1           0        1.876517    1.630205    0.000231
     11          1           0       -0.473554    2.440142   -0.001033
     12          1           0       -2.350021    0.810449    0.000546
 ---------------------------------------------------------------------
                    Distance matrix (angstroms):
                    1          2          3          4          5
     1  C    0.000000
     2  C    1.397943   0.000000
     3  C    2.421071   1.397229   0.000000
     4  C    2.795192   2.420101   1.397563   0.000000
     5  C    2.420467   2.794547   2.420591   1.397424   0.000000
     6  C    1.397055   2.420335   2.795390   2.420904   1.397915
     7  H    1.088174   2.158371   3.406870   3.883366   3.406927
     8  H    2.158458   1.088232   2.157871   3.406287   3.882778
     9  H    3.407071   2.157890   1.088138   2.158501   3.406815
    10  H    3.883420   3.406276   2.158241   1.088228   2.158194
    11  H    3.406587   3.882836   3.406818   2.158249   1.088290
    12  H    2.158290   3.406892   3.883575   3.406692   2.158154
                    6          7          8          9         10
     6  C    0.000000
     7  H    2.158217   0.000000
     8  H    3.406369   2.485485   0.000000
     9  H    3.883528   4.305270   2.485135   0.000000
    10  H    3.407093   4.971594   4.304990   2.486060   0.000000
    11  H    2.158598   4.305676   4.971067   4.305639   2.485726
    12  H    1.088185   2.486606   4.305577   4.971713   4.305302
                   11         12
    11  H    0.000000
    12  H    2.485363   0.000000
 Stoichiometry    C6H6
 Framework group  C1[X(C6H6)]
 Deg. of freedom    30
 Full point group                 C1      NOp   1
 Largest Abelian subgroup         C1      NOp   1
 Largest concise Abelian subgroup C1      NOp   1
                         Standard orientation:                         
 ---------------------------------------------------------------------
 Center     Atomic      Atomic             Coordinates (Angstroms)
 Number     Number       Type             X           Y           Z
 ---------------------------------------------------------------------
      1          6           0       -1.055507   -0.916201    0.000103
      2          6           0        0.266189   -1.371576   -0.000350
      3          6           0        1.321362   -0.455685    0.000212
      4          6           0        1.055192    0.916297   -0.000052
      5          6           0       -0.265894    1.371849    0.000094
      6          6           0       -1.321418    0.455314   -0.000027
      7          1           0       -1.876624   -1.630267    0.000168
      8          1           0        0.473291   -2.439919    0.000005
      9          1           0        2.349933   -0.810774    0.000200
     10          1           0        1.876822    1.629853    0.000231
     11          1           0       -0.473097    2.440231   -0.001033
     12          1           0       -2.349869    0.810889    0.000546
 ---------------------------------------------------------------------
 Rotational constants (GHZ):      5.6804514      5.6774034      2.8394636
 Leave Link  202 at Fri Dec 20 10:41:35 2019, MaxMem=   33554432 cpu:       0.0
 (Enter d:\softwares\Gaussian09\l301.exe)
 Standard basis: STO-2G (5D, 7F)
 Ernie: Thresh=  0.10000D-02 Tol=  0.10000D-05 Strict=F.
 There are    36 symmetry adapted basis functions of A   symmetry.
 Integral buffers will be    262144 words long.
 Raffenetti 2 integral format.
 Two-electron integral symmetry is turned on.
    36 basis functions,    72 primitive gaussians,    36 cartesian basis functions
    21 alpha electrons       21 beta electrons
       nuclear repulsion energy       203.0412543208 Hartrees.
 IExCor=  300 DFT=T Ex=Xa Corr=None ExCW=0 ScaHFX=  0.000000
 ScaDFX=  1.000000  1.000000  1.000000  1.000000 ScalE2=  1.000000  1.000000
 IRadAn=      0 IRanWt=     -1 IRanGd=            0 ICorTp=0
 NAtoms=   12 NActive=   12 NUniq=   12 SFac= 1.00D+00 NAtFMM=   50 NAOKFM=F Big=F
 Leave Link  301 at Fri Dec 20 10:41:35 2019, MaxMem=   33554432 cpu:       0.0
 (Enter d:\softwares\Gaussian09\l302.exe)
 NPDir=0 NMtPBC=     1 NCelOv=     1 NCel=       1 NClECP=     1 NCelD=      1
         NCelK=      1 NCelE2=     1 NClLst=     1 CellRange=     0.0.
 One-electron integrals computed using PRISM.
 NBasis=    36 RedAO= T  NBF=    36
 NBsUse=    36 1.00D-06 NBFU=    36
 Precomputing XC quadrature grid using
 IXCGrd= 2 IRadAn=           0 IRanWt=          -1 IRanGd=           0 AccXCQ= 0.00D+00.
 NRdTot=     744 NPtTot=       92904 NUsed=       96384 NTot=       96400
 NSgBfM=    36    36    36    36    36 NAtAll=    12    12.
 Leave Link  302 at Fri Dec 20 10:41:35 2019, MaxMem=   33554432 cpu:       0.0
 (Enter d:\softwares\Gaussian09\l303.exe)
 DipDrv:  MaxL=1.
 Leave Link  303 at Fri Dec 20 10:41:35 2019, MaxMem=   33554432 cpu:       0.0
 (Enter d:\softwares\Gaussian09\l401.exe)
 Harris functional with IExCor=  300 diagonalized for initial guess.
 ExpMin= 2.33D-01 ExpMax= 2.74D+01 ExpMxC= 2.74D+01 IAcc=1 IRadAn=         1 AccDes= 0.00D+00
 HarFok:  IExCor=  300 AccDes= 0.00D+00 IRadAn=         1 IDoV= 1
 ScaDFX=  1.000000  1.000000  1.000000  1.000000
 FoFCou: FMM=F IPFlag=           0 FMFlag=      100000 FMFlg1=           0
         NFxFlg=           0 DoJE=T BraDBF=F KetDBF=T FulRan=T
         Omega=  0.000000  0.000000  1.000000  0.000000  0.000000 ICntrl=     500 IOpCl=  0
         NMat0=    1 NMatS0=    1 NMatT0=    0 NMatD0=    1 NMtDS0=    0 NMtDT0=    0
         I1Cent=           4 NGrid=           0.
 Petite list used in FoFCou.
 Harris En= -219.438578227578    
 Initial guess orbital symmetries:
       Occupied  (A) (A) (A) (A) (A) (A) (A) (A) (A) (A) (A) (A)
                 (A) (A) (A) (A) (A) (A) (A) (A) (A)
       Virtual   (A) (A) (A) (A) (A) (A) (A) (A) (A) (A) (A) (A)
                 (A) (A) (A)
 The electronic state of the initial guess is 1-A.
 Leave Link  401 at Fri Dec 20 10:41:35 2019, MaxMem=   33554432 cpu:       0.0
 (Enter d:\softwares\Gaussian09\l502.exe)
 Closed shell SCF:
 Requested convergence on RMS density matrix=1.00D-08 within 128 cycles.
 Requested convergence on MAX density matrix=1.00D-06.
 Requested convergence on             energy=1.00D-06.
 No special actions if energy rises.
 Using DIIS extrapolation, IDIIS=  1040.
 Integral symmetry usage will be decided dynamically.
        96276 words used for storage of precomputed grid.
 Keep J ints in memory in canonical form, NReq=1196630.
 IEnd=      118753 IEndB=      118753 NGot=    33554432 MDV=    33231513
 LenX=    33231513 LenY=    33229776
 Symmetry not used in FoFDir.
 MinBra= 0 MaxBra= 1 Meth= 1.
 IRaf=       0 NMat=   1 IRICut=       1 DoRegI=T DoRafI=F ISym2E= 0 JSym2E=0.
 Integral accuracy reduced to 1.0D-05 until final iterations.

 Cycle   1  Pass 0  IDiag  1:
 E= -219.354322729513    
 DIIS: error= 2.05D-02 at cycle   1 NSaved=   1.
 NSaved= 1 IEnMin= 1 EnMin= -219.354322729513     IErMin= 1 ErrMin= 2.05D-02
 ErrMax= 2.05D-02 EMaxC= 1.00D-01 BMatC= 1.34D-02 BMatP= 1.34D-02
 IDIUse=3 WtCom= 7.95D-01 WtEn= 2.05D-01
 Coeff-Com:  0.100D+01
 Coeff-En:   0.100D+01
 Coeff:      0.100D+01
 Gap=     0.236 Goal=   None    Shift=    0.000
 GapD=    0.236 DampG=1.000 DampE=0.500 DampFc=0.5000 IDamp=-1.
 Damping current iteration by 5.00D-01
 RMSDP=8.17D-03 MaxDP=7.21D-02              OVMax= 0.00D+00

 Cycle   2  Pass 0  IDiag  1:
 E= -219.363518979210     Delta-E=       -0.009196249697 Rises=F Damp=T
 DIIS: error= 6.81D-03 at cycle   2 NSaved=   2.
 NSaved= 2 IEnMin= 2 EnMin= -219.363518979210     IErMin= 2 ErrMin= 6.81D-03
 ErrMax= 6.81D-03 EMaxC= 1.00D-01 BMatC= 8.79D-04 BMatP= 1.34D-02
 IDIUse=3 WtCom= 9.32D-01 WtEn= 6.81D-02
 Coeff-Com: -0.190D+00 0.119D+01
 Coeff-En:   0.000D+00 0.100D+01
 Coeff:     -0.177D+00 0.118D+01
 Gap=     0.236 Goal=   None    Shift=    0.000
 RMSDP=9.22D-04 MaxDP=4.54D-03 DE=-9.20D-03 OVMax= 0.00D+00

 Cycle   3  Pass 0  IDiag  1:
 E= -219.371334525567     Delta-E=       -0.007815546357 Rises=F Damp=F
 DIIS: error= 7.11D-04 at cycle   3 NSaved=   3.
 NSaved= 3 IEnMin= 3 EnMin= -219.371334525567     IErMin= 3 ErrMin= 7.11D-04
 ErrMax= 7.11D-04 EMaxC= 1.00D-01 BMatC= 1.46D-05 BMatP= 8.79D-04
 IDIUse=3 WtCom= 9.93D-01 WtEn= 7.11D-03
 Coeff-Com: -0.457D-01 0.114D+00 0.932D+00
 Coeff-En:   0.000D+00 0.000D+00 0.100D+01
 Coeff:     -0.454D-01 0.113D+00 0.932D+00
 Gap=     0.236 Goal=   None    Shift=    0.000
 RMSDP=1.65D-04 MaxDP=1.34D-03 DE=-7.82D-03 OVMax= 0.00D+00

 Cycle   4  Pass 0  IDiag  1:
 E= -219.371354717018     Delta-E=       -0.000020191452 Rises=F Damp=F
 DIIS: error= 3.84D-05 at cycle   4 NSaved=   4.
 NSaved= 4 IEnMin= 4 EnMin= -219.371354717018     IErMin= 4 ErrMin= 3.84D-05
 ErrMax= 3.84D-05 EMaxC= 1.00D-01 BMatC= 4.62D-08 BMatP= 1.46D-05
 IDIUse=1 WtCom= 1.00D+00 WtEn= 0.00D+00
 Coeff-Com: -0.972D-02 0.240D-01 0.203D+00 0.782D+00
 Coeff:     -0.972D-02 0.240D-01 0.203D+00 0.782D+00
 Gap=     0.236 Goal=   None    Shift=    0.000
 RMSDP=1.65D-05 MaxDP=1.96D-04 DE=-2.02D-05 OVMax= 0.00D+00

 Cycle   5  Pass 0  IDiag  1:
 E= -219.371354716051     Delta-E=        0.000000000967 Rises=F Damp=F
 DIIS: error= 5.50D-05 at cycle   5 NSaved=   5.
 NSaved= 5 IEnMin= 4 EnMin= -219.371354717018     IErMin= 4 ErrMin= 3.84D-05
 ErrMax= 5.50D-05 EMaxC= 1.00D-01 BMatC= 4.80D-08 BMatP= 4.62D-08
 IDIUse=1 WtCom= 1.00D+00 WtEn= 0.00D+00
 Coeff-Com: -0.545D-02 0.134D-01 0.115D+00 0.540D+00 0.338D+00
 Coeff:     -0.545D-02 0.134D-01 0.115D+00 0.540D+00 0.338D+00
 Gap=     0.236 Goal=   None    Shift=    0.000
 RMSDP=8.72D-06 MaxDP=1.10D-04 DE= 9.67D-10 OVMax= 0.00D+00

 Initial convergence to 1.0D-05 achieved.  Increase integral accuracy.
 Cycle   6  Pass 1  IDiag  1:
 E= -219.371330066945     Delta-E=        0.000024649106 Rises=F Damp=F
 DIIS: error= 3.07D-06 at cycle   1 NSaved=   1.
 NSaved= 1 IEnMin= 1 EnMin= -219.371330066945     IErMin= 1 ErrMin= 3.07D-06
 ErrMax= 3.07D-06 EMaxC= 1.00D-01 BMatC= 4.42D-10 BMatP= 4.42D-10
 IDIUse=1 WtCom= 1.00D+00 WtEn= 0.00D+00
 Coeff-Com:  0.100D+01
 Coeff:      0.100D+01
 Gap=     0.236 Goal=   None    Shift=    0.000
 RMSDP=8.72D-06 MaxDP=1.10D-04 DE= 2.46D-05 OVMax= 0.00D+00

 Cycle   7  Pass 1  IDiag  1:
 E= -219.371330067034     Delta-E=       -0.000000000089 Rises=F Damp=F
 DIIS: error= 3.16D-06 at cycle   2 NSaved=   2.
 NSaved= 2 IEnMin= 2 EnMin= -219.371330067034     IErMin= 1 ErrMin= 3.07D-06
 ErrMax= 3.16D-06 EMaxC= 1.00D-01 BMatC= 5.00D-10 BMatP= 4.42D-10
 IDIUse=1 WtCom= 1.00D+00 WtEn= 0.00D+00
 Coeff-Com:  0.518D+00 0.482D+00
 Coeff:      0.518D+00 0.482D+00
 Gap=     0.236 Goal=   None    Shift=    0.000
 RMSDP=9.93D-07 MaxDP=1.71D-05 DE=-8.88D-11 OVMax= 0.00D+00

 Cycle   8  Pass 1  IDiag  1:
 E= -219.371330067585     Delta-E=       -0.000000000551 Rises=F Damp=F
 DIIS: error= 1.36D-06 at cycle   3 NSaved=   3.
 NSaved= 3 IEnMin= 3 EnMin= -219.371330067585     IErMin= 3 ErrMin= 1.36D-06
 ErrMax= 1.36D-06 EMaxC= 1.00D-01 BMatC= 4.87D-11 BMatP= 4.42D-10
 IDIUse=1 WtCom= 1.00D+00 WtEn= 0.00D+00
 Coeff-Com:  0.580D-01 0.245D+00 0.697D+00
 Coeff:      0.580D-01 0.245D+00 0.697D+00
 Gap=     0.236 Goal=   None    Shift=    0.000
 RMSDP=3.30D-07 MaxDP=5.74D-06 DE=-5.51D-10 OVMax= 0.00D+00

 Cycle   9  Pass 1  IDiag  1:
 E= -219.371330067637     Delta-E=       -0.000000000053 Rises=F Damp=F
 DIIS: error= 7.03D-07 at cycle   4 NSaved=   4.
 NSaved= 4 IEnMin= 4 EnMin= -219.371330067637     IErMin= 4 ErrMin= 7.03D-07
 ErrMax= 7.03D-07 EMaxC= 1.00D-01 BMatC= 8.58D-12 BMatP= 4.87D-11
 IDIUse=1 WtCom= 1.00D+00 WtEn= 0.00D+00
 Coeff-Com:  0.131D-01 0.136D+00 0.454D+00 0.396D+00
 Coeff:      0.131D-01 0.136D+00 0.454D+00 0.396D+00
 Gap=     0.236 Goal=   None    Shift=    0.000
 RMSDP=1.25D-07 MaxDP=1.92D-06 DE=-5.29D-11 OVMax= 0.00D+00

 Cycle  10  Pass 1  IDiag  1:
 E= -219.371330067650     Delta-E=       -0.000000000013 Rises=F Damp=F
 DIIS: error= 6.64D-08 at cycle   5 NSaved=   5.
 NSaved= 5 IEnMin= 5 EnMin= -219.371330067650     IErMin= 5 ErrMin= 6.64D-08
 ErrMax= 6.64D-08 EMaxC= 1.00D-01 BMatC= 1.89D-13 BMatP= 8.58D-12
 IDIUse=1 WtCom= 1.00D+00 WtEn= 0.00D+00
 Coeff-Com:  0.228D-02 0.454D-01 0.165D+00 0.194D+00 0.593D+00
 Coeff:      0.228D-02 0.454D-01 0.165D+00 0.194D+00 0.593D+00
 Gap=     0.236 Goal=   None    Shift=    0.000
 RMSDP=1.97D-08 MaxDP=2.48D-07 DE=-1.27D-11 OVMax= 0.00D+00

 Cycle  11  Pass 1  IDiag  1:
 E= -219.371330067650     Delta-E=        0.000000000000 Rises=F Damp=F
 DIIS: error= 2.20D-08 at cycle   6 NSaved=   6.
 NSaved= 6 IEnMin= 6 EnMin= -219.371330067650     IErMin= 6 ErrMin= 2.20D-08
 ErrMax= 2.20D-08 EMaxC= 1.00D-01 BMatC= 9.88D-15 BMatP= 1.89D-13
 IDIUse=1 WtCom= 1.00D+00 WtEn= 0.00D+00
 Coeff-Com:  0.542D-03 0.151D-01 0.580D-01 0.756D-01 0.282D+00 0.568D+00
 Coeff:      0.542D-03 0.151D-01 0.580D-01 0.756D-01 0.282D+00 0.568D+00
 Gap=     0.236 Goal=   None    Shift=    0.000
 RMSDP=5.32D-09 MaxDP=8.45D-08 DE=-5.68D-14 OVMax= 0.00D+00

 SCF Done:  E(RXa) =  -219.371330068     A.U. after   11 cycles
             Convg  =    0.5315D-08             -V/T =  2.0166
 KE= 2.157847056842D+02 PE=-9.190944885408D+02 EE= 2.808971984682D+02
 Leave Link  502 at Fri Dec 20 10:41:37 2019, MaxMem=   33554432 cpu:       1.0
 (Enter d:\softwares\Gaussian09\l601.exe)
 Copying SCF densities to generalized density rwf, IOpCl= 0 IROHF=0.

 **********************************************************************

            Population analysis using the SCF density.

 **********************************************************************

 Orbital symmetries:
       Occupied  (A) (A) (A) (A) (A) (A) (A) (A) (A) (A) (A) (A)
                 (A) (A) (A) (A) (A) (A) (A) (A) (A)
       Virtual   (A) (A) (A) (A) (A) (A) (A) (A) (A) (A) (A) (A)
                 (A) (A) (A)
 The electronic state is 1-A.
 Alpha  occ. eigenvalues --   -9.23818  -9.23515  -9.23513  -9.23035  -9.23032
 Alpha  occ. eigenvalues --   -9.22791  -0.66918  -0.56381  -0.56370  -0.43688
 Alpha  occ. eigenvalues --   -0.43686  -0.38185  -0.30476  -0.29728  -0.27286
 Alpha  occ. eigenvalues --   -0.27269  -0.21861  -0.19425  -0.19421  -0.10743
 Alpha  occ. eigenvalues --   -0.10730
 Alpha virt. eigenvalues --    0.12856   0.12864   0.28933   0.37803   0.44937
 Alpha virt. eigenvalues --    0.44951   0.48908   0.49434   0.49450   0.65822
 Alpha virt. eigenvalues --    0.65837   0.65872   0.65908   0.85200   0.89291
          Condensed to atoms (all electrons):
              1          2          3          4          5          6
     1  C    4.781242   0.500225  -0.024131  -0.009126  -0.024168   0.500700
     2  C    0.500225   4.781364   0.500627  -0.024194  -0.009152  -0.024178
     3  C   -0.024131   0.500627   4.781265   0.500320  -0.024159  -0.009118
     4  C   -0.009126  -0.024194   0.500320   4.781274   0.500593  -0.024145
     5  C   -0.024168  -0.009152  -0.024159   0.500593   4.781372   0.500224
     6  C    0.500700  -0.024178  -0.009118  -0.024145   0.500224   4.781255
     7  H    0.388722  -0.021905   0.000799   0.000017   0.000800  -0.021896
     8  H   -0.021906   0.388701  -0.021927   0.000802   0.000017   0.000800
     9  H    0.000799  -0.021916   0.388742  -0.021888   0.000799   0.000017
    10  H    0.000017   0.000801  -0.021912   0.388700  -0.021906   0.000799
    11  H    0.000799   0.000017   0.000800  -0.021907   0.388699  -0.021897
    12  H   -0.021892   0.000800   0.000017   0.000799  -0.021919   0.388710
              7          8          9         10         11         12
     1  C    0.388722  -0.021906   0.000799   0.000017   0.000799  -0.021892
     2  C   -0.021905   0.388701  -0.021916   0.000801   0.000017   0.000800
     3  C    0.000799  -0.021927   0.388742  -0.021912   0.000800   0.000017
     4  C    0.000017   0.000802  -0.021888   0.388700  -0.021907   0.000799
     5  C    0.000800   0.000017   0.000799  -0.021906   0.388699  -0.021919
     6  C   -0.021896   0.000800   0.000017   0.000799  -0.021897   0.388710
     7  H    0.588293  -0.003047  -0.000009   0.000000  -0.000009  -0.003045
     8  H   -0.003047   0.588419  -0.003054  -0.000009   0.000000  -0.000009
     9  H   -0.000009  -0.003054   0.588278  -0.003045  -0.000009   0.000000
    10  H    0.000000  -0.000009  -0.003045   0.588368  -0.003049  -0.000009
    11  H   -0.000009   0.000000  -0.000009  -0.003049   0.588372  -0.003047
    12  H   -0.003045  -0.000009   0.000000  -0.000009  -0.003047   0.588332
 Mulliken atomic charges:
              1
     1  C   -0.071283
     2  C   -0.071192
     3  C   -0.071322
     4  C   -0.071245
     5  C   -0.071200
     6  C   -0.071272
     7  H    0.071279
     8  H    0.071213
     9  H    0.071286
    10  H    0.071243
    11  H    0.071231
    12  H    0.071262
 Sum of Mulliken atomic charges =   0.00000
 Mulliken charges with hydrogens summed into heavy atoms:
              1
     1  C   -0.000004
     2  C    0.000021
     3  C   -0.000036
     4  C   -0.000002
     5  C    0.000031
     6  C   -0.000010
 Sum of Mulliken charges with hydrogens summed into heavy atoms =   0.00000
 Electronic spatial extent (au):  <R**2>=            455.2581
 Charge=              0.0000 electrons
 Dipole moment (field-independent basis, Debye):
    X=              0.0001    Y=              0.0001    Z=              0.0000  Tot=              0.0001
 Quadrupole moment (field-independent basis, Debye-Ang):
   XX=            -30.6883   YY=            -30.6882   ZZ=            -35.1765
   XY=             -0.0011   XZ=             -0.0001   YZ=             -0.0013
 Traceless Quadrupole moment (field-independent basis, Debye-Ang):
   XX=              1.4960   YY=              1.4961   ZZ=             -2.9921
   XY=             -0.0011   XZ=             -0.0001   YZ=             -0.0013
 Octapole moment (field-independent basis, Debye-Ang**2):
  XXX=              0.0046  YYY=              0.0022  ZZZ=              0.0000  XYY=             -0.0036
  XXY=             -0.0008  XXZ=              0.0026  XZZ=              0.0001  YZZ=             -0.0001
  YYZ=             -0.0022  XYZ=              0.0006
 Hexadecapole moment (field-independent basis, Debye-Ang**3):
 XXXX=           -254.2024 YYYY=           -254.0914 ZZZZ=            -27.2062 XXXY=             -0.0105
 XXXZ=             -0.0039 YYYX=              0.0013 YYYZ=             -0.0133 ZZZX=             -0.0001
 ZZZY=             -0.0005 XXYY=            -84.7033 XXZZ=            -53.2471 YYZZ=            -53.2278
 XXYZ=              0.0019 YYXZ=              0.0028 ZZXY=             -0.0002
 N-N= 2.030412543208D+02 E-N=-9.190944889720D+02  KE= 2.157847056842D+02
 No NMR shielding tensors so no spin-rotation constants.
 Leave Link  601 at Fri Dec 20 10:41:38 2019, MaxMem=   33554432 cpu:       0.0
 (Enter d:\softwares\Gaussian09\l9999.exe)
 1|1|UNPC-AMADEUS|SP|RXAlphaXa|STO-2G|C6H6|ENIGM|20-Dec-2019|0||#p geom
 =connectivity output=wfn sto-2g xalpha||Title Card Required||0,1|C,0,-
 1.055335,-0.916399,0.000103|C,0,0.266446,-1.371526,-0.00035|C,0,1.3214
 48,-0.455437,0.000212|C,0,1.05502,0.916495,-0.000052|C,0,-0.266151,1.3
 71799,0.000094|C,0,-1.321503,0.455066,-0.000027|H,0,-1.876318,-1.63061
 9,0.000168|H,0,0.473749,-2.43983,0.000005|H,0,2.350085,-0.810333,0.000
 2|H,0,1.876517,1.630205,0.000231|H,0,-0.473554,2.440142,-0.001033|H,0,
 -2.350021,0.810449,0.000546||Version=IA32W-G09RevB.01|State=1-A|HF=-21
 9.3713301|RMSD=5.315e-009|Dipole=0.0000218,0.0000468,0.0000188|Quadrup
 ole=1.1122596,1.1123291,-2.2245886,-0.0008158,-0.0000938,-0.0009918|PG
 =C01 [X(C6H6)]||@

 Writing a WFN file to  .
