 Entering Link 1 = E:\g09w\l1.exe PID=     13136.
  
 Copyright (c) 1988,1990,1992,1993,1995,1998,2003,2009, Gaussian, Inc.
                  All Rights Reserved.
  
 This is part of the Gaussian(R) 09 program.  It is based on
 the Gaussian(R) 03 system (copyright 2003, Gaussian, Inc.),
 the Gaussian(R) 98 system (copyright 1998, Gaussian, Inc.),
 the Gaussian(R) 94 system (copyright 1995, Gaussian, Inc.),
 the Gaussian 92(TM) system (copyright 1992, Gaussian, Inc.),
 the Gaussian 90(TM) system (copyright 1990, Gaussian, Inc.),
 the Gaussian 88(TM) system (copyright 1988, Gaussian, Inc.),
 the Gaussian 86(TM) system (copyright 1986, Carnegie Mellon
 University), and the Gaussian 82(TM) system (copyright 1983,
 Carnegie Mellon University). Gaussian is a federally registered
 trademark of Gaussian, Inc.
  
 This software contains proprietary and confidential information,
 including trade secrets, belonging to Gaussian, Inc.
  
 This software is provided under written license and may be
 used, copied, transmitted, or stored only in accord with that
 written license.
  
 The following legend is applicable only to US Government
 contracts under FAR:
  
                    RESTRICTED RIGHTS LEGEND
  
 Use, reproduction and disclosure by the US Government is
 subject to restrictions as set forth in subparagraphs (a)
 and (c) of the Commercial Computer Software - Restricted
 Rights clause in FAR 52.227-19.
  
 Gaussian, Inc.
 340 Quinnipiac St., Bldg. 40, Wallingford CT 06492
  
  
 ---------------------------------------------------------------
 Warning -- This program may not be used in any manner that
 competes with the business of Gaussian, Inc. or will provide
 assistance to any competitor of Gaussian, Inc.  The licensee
 of this program is prohibited from giving any competitor of
 Gaussian, Inc. access to this program.  By using this program,
 the user acknowledges that Gaussian, Inc. is engaged in the
 business of creating and licensing software in the field of
 computational chemistry and represents and warrants to the
 licensee that it is not a competitor of Gaussian, Inc. and that
 it will not use this program in any manner prohibited above.
 ---------------------------------------------------------------
  

 Cite this work as:
 Gaussian 09, Revision A.02,
 M. J. Frisch, G. W. Trucks, H. B. Schlegel, G. E. Scuseria, 
 M. A. Robb, J. R. Cheeseman, G. Scalmani, V. Barone, B. Mennucci, 
 G. A. Petersson, H. Nakatsuji, M. Caricato, X. Li, H. P. Hratchian, 
 A. F. Izmaylov, J. Bloino, G. Zheng, J. L. Sonnenberg, M. Hada, 
 M. Ehara, K. Toyota, R. Fukuda, J. Hasegawa, M. Ishida, T. Nakajima, 
 Y. Honda, O. Kitao, H. Nakai, T. Vreven, J. A. Montgomery, Jr., 
 J. E. Peralta, F. Ogliaro, M. Bearpark, J. J. Heyd, E. Brothers, 
 K. N. Kudin, V. N. Staroverov, R. Kobayashi, J. Normand, 
 K. Raghavachari, A. Rendell, J. C. Burant, S. S. Iyengar, J. Tomasi, 
 M. Cossi, N. Rega, J. M. Millam, M. Klene, J. E. Knox, J. B. Cross, 
 V. Bakken, C. Adamo, J. Jaramillo, R. Gomperts, R. E. Stratmann, 
 O. Yazyev, A. J. Austin, R. Cammi, C. Pomelli, J. W. Ochterski, 
 R. L. Martin, K. Morokuma, V. G. Zakrzewski, G. A. Voth, 
 P. Salvador, J. J. Dannenberg, S. Dapprich, A. D. Daniels, 
 O. Farkas, J. B. Foresman, J. V. Ortiz, J. Cioslowski, 
 and D. J. Fox, Gaussian, Inc., Wallingford CT, 2009.
 
 ******************************************
 Gaussian 09:  IA32W-G09RevA.02 11-Jun-2009
                14-Dec-2019 
 ******************************************
 %chk=CH4.chk
 ---------------------------------------------
 #p geom=connectivity output=wfn sto-2g xalpha
 ---------------------------------------------
 1/38=1,57=2/1;
 2/12=2,17=6,18=5,40=1/2;
 3/6=2,11=2,16=1,25=1,30=1,74=300/1,2,3;
 4//1;
 5/5=2,38=5/2;
 6/7=2,8=2,9=2,10=2,28=1/1;
 99/5=1,6=100,9=1/99;
 Leave Link    1 at Sat Dec 14 19:02:21 2019, MaxMem=          0 cpu:       0.0
 (Enter E:\g09w\l101.exe)
 -------------------
 Title Card Required
 -------------------
 Symbolic Z-matrix:
 Charge =  0 Multiplicity = 1
 C                    -0.4978    0.30015   0. 
 H                    -0.14115  -0.70866   0. 
 H                    -0.14113   0.80454   0.87365 
 H                    -0.14113   0.80454  -0.87365 
 H                    -1.5678    0.30016   0. 
 
 NAtoms=      5 NQM=      5 NQMF=      0 NMic=      0 NMicF=      0 NTot=      5.
                    Isotopes and Nuclear Properties:
 (Nuclear quadrupole moments (NQMom) in fm**2, nuclear magnetic moments (NMagM)
  in nuclear magnetons)

  Atom         1           2           3           4           5
 IAtWgt=          12           1           1           1           1
 AtmWgt=  12.0000000   1.0078250   1.0078250   1.0078250   1.0078250
 NucSpn=           0           1           1           1           1
 AtZEff=   0.0000000   0.0000000   0.0000000   0.0000000   0.0000000
 NQMom=    0.0000000   0.0000000   0.0000000   0.0000000   0.0000000
 NMagM=    0.0000000   2.7928460   2.7928460   2.7928460   2.7928460
 Leave Link  101 at Sat Dec 14 19:02:21 2019, MaxMem=   33554432 cpu:       0.0
 (Enter E:\g09w\l202.exe)
                          Input orientation:                          
 ---------------------------------------------------------------------
 Center     Atomic      Atomic             Coordinates (Angstroms)
 Number     Number       Type             X           Y           Z
 ---------------------------------------------------------------------
      1          6           0       -0.497804    0.300146    0.000000
      2          1           0       -0.141149   -0.708664    0.000000
      3          1           0       -0.141131    0.804545    0.873652
      4          1           0       -0.141131    0.804545   -0.873652
      5          1           0       -1.567804    0.300160    0.000000
 ---------------------------------------------------------------------
                    Distance matrix (angstroms):
                    1          2          3          4          5
     1  C    0.000000
     2  H    1.070000   0.000000
     3  H    1.070000   1.747302   0.000000
     4  H    1.070000   1.747302   1.747303   0.000000
     5  H    1.070000   1.747303   1.747303   1.747303   0.000000
 Stoichiometry    CH4
 Framework group  T[O(C),4C3(H)]
 Deg. of freedom     1
 Full point group                 T       NOp  12
 Largest Abelian subgroup         D2      NOp   4
 Largest concise Abelian subgroup D2      NOp   4
                         Standard orientation:                         
 ---------------------------------------------------------------------
 Center     Atomic      Atomic             Coordinates (Angstroms)
 Number     Number       Type             X           Y           Z
 ---------------------------------------------------------------------
      1          6           0        0.000000    0.000000    0.000000
      2          1           0        0.617765    0.617765    0.617765
      3          1           0       -0.617765   -0.617765    0.617765
      4          1           0       -0.617765    0.617765   -0.617765
      5          1           0        0.617765   -0.617765   -0.617765
 ---------------------------------------------------------------------
 Rotational constants (GHZ):    164.2463785    164.2463785    164.2463785
 Leave Link  202 at Sat Dec 14 19:02:21 2019, MaxMem=   33554432 cpu:       0.0
 (Enter E:\g09w\l301.exe)
 Standard basis: STO-2G (5D, 7F)
 Ernie: Thresh=  0.10000D-02 Tol=  0.10000D-05 Strict=F.
 There are     3 symmetry adapted basis functions of A   symmetry.
 There are     2 symmetry adapted basis functions of B1  symmetry.
 There are     2 symmetry adapted basis functions of B2  symmetry.
 There are     2 symmetry adapted basis functions of B3  symmetry.
 Integral buffers will be    262144 words long.
 Raffenetti 2 integral format.
 Two-electron integral symmetry is turned on.
     9 basis functions,    18 primitive gaussians,     9 cartesian basis functions
     5 alpha electrons        5 beta electrons
       nuclear repulsion energy        13.6865185517 Hartrees.
 IExCor=  300 DFT=T Ex=Xa Corr=None ExCW=0 ScaHFX=  0.000000
 ScaDFX=  1.000000  1.000000  1.000000  1.000000 ScalE2=  1.000000  1.000000
 IRadAn=      0 IRanWt=     -1 IRanGd=            0 ICorTp=0
 NAtoms=    5 NActive=    5 NUniq=    2 SFac= 3.00D+00 NAtFMM=   80 NAOKFM=F Big=F
 Leave Link  301 at Sat Dec 14 19:02:22 2019, MaxMem=   33554432 cpu:       0.0
 (Enter E:\g09w\l302.exe)
 NPDir=0 NMtPBC=     1 NCelOv=     1 NCel=       1 NClECP=     1 NCelD=      1
         NCelK=      1 NCelE2=     1 NClLst=     1 CellRange=     0.0.
 One-electron integrals computed using PRISM.
 One-electron integral symmetry used in STVInt
 NBasis=     9 RedAO= T  NBF=     3     2     2     2
 NBsUse=     9 1.00D-06 NBFU=     3     2     2     2
 Precomputing XC quadrature grid using
 IXCGrd= 2 IRadAn=           0 IRanWt=          -1 IRanGd=           0 AccXCQ= 1.00D-10.
 NRdTot=     303 NPtTot=       37652 NUsed=       39079 NTot=       39095
 NSgBfM=     9     9     9     9     9 NAtAll=     5     5.
 Leave Link  302 at Sat Dec 14 19:02:23 2019, MaxMem=   33554432 cpu:       0.0
 (Enter E:\g09w\l303.exe)
 DipDrv:  MaxL=1.
 Leave Link  303 at Sat Dec 14 19:02:24 2019, MaxMem=   33554432 cpu:       0.0
 (Enter E:\g09w\l401.exe)
 Harris functional with IExCor=  300 diagonalized for initial guess.
 ExpMin= 2.33D-01 ExpMax= 2.74D+01 ExpMxC= 2.74D+01 IAcc=1 IRadAn=         1 AccDes= 0.00D+00
 HarFok:  IExCor=  300 AccDes= 0.00D+00 IRadAn=         1 IDoV= 1
 ScaDFX=  1.000000  1.000000  1.000000  1.000000
 FoFCou: FMM=F IPFlag=           0 FMFlag=      100000 FMFlg1=           0
         NFxFlg=           0 DoJE=T BraDBF=F KetDBF=T FulRan=T
         Omega=  0.000000  0.000000  1.000000  0.000000  0.000000 ICntrl=     500 IOpCl=  0
         NMat0=    1 NMatS0=    1 NMatT0=    0 NMatD0=    1 NMtDS0=    0 NMtDT0=    0
         I1Cent=           4 NGrid=           0.
 Petite list used in FoFCou.
 Harris En= -38.2240919334775    
 Initial guess orbital symmetries:
       Occupied  (A) (A) (T) (T) (T)
       Virtual   (T) (T) (T) (A)
 The electronic state of the initial guess is 1-A.
 Leave Link  401 at Sat Dec 14 19:02:24 2019, MaxMem=   33554432 cpu:       0.0
 (Enter E:\g09w\l502.exe)
 Closed shell SCF:
 Requested convergence on RMS density matrix=1.00D-08 within 128 cycles.
 Requested convergence on MAX density matrix=1.00D-06.
 Requested convergence on             energy=1.00D-06.
 No special actions if energy rises.
 Using DIIS extrapolation, IDIIS=  1040.
 Integral symmetry usage will be decided dynamically.
        39026 words used for storage of precomputed grid.
 Keep J ints in memory in canonical form, NReq=910057.
 IEnd=       58785 IEndB=       58785 NGot=    33554432 MDV=    33511687
 LenX=    33511687 LenY=    33510805
 Symmetry not used in FoFDir.
 MinBra= 0 MaxBra= 1 Meth= 1.
 IRaf=       0 NMat=   1 IRICut=       1 DoRegI=T DoRafI=F ISym2E= 0 JSym2E=0.
 Integral accuracy reduced to 1.0D-05 until final iterations.

 Cycle   1  Pass 0  IDiag  1:
 E= -38.1494404733288    
 DIIS: error= 3.05D-02 at cycle   1 NSaved=   1.
 NSaved= 1 IEnMin= 1 EnMin= -38.1494404733288     IErMin= 1 ErrMin= 3.05D-02
 ErrMax= 3.05D-02 EMaxC= 1.00D-01 BMatC= 1.47D-02 BMatP= 1.47D-02
 IDIUse=3 WtCom= 6.95D-01 WtEn= 3.05D-01
 Coeff-Com:  0.100D+01
 Coeff-En:   0.100D+01
 Coeff:      0.100D+01
 Gap=     0.780 Goal=   None    Shift=    0.000
 GapD=    0.780 DampG=2.000 DampE=0.500 DampFc=1.0000 IDamp=-1.
 RMSDP=3.28D-02 MaxDP=1.14D-01              OVMax= 0.00D+00

 Cycle   2  Pass 0  IDiag  1:
 E= -38.1500802286861     Delta-E=       -0.000639755357 Rises=F Damp=F
 DIIS: error= 2.95D-02 at cycle   2 NSaved=   2.
 NSaved= 2 IEnMin= 2 EnMin= -38.1500802286861     IErMin= 2 ErrMin= 2.95D-02
 ErrMax= 2.95D-02 EMaxC= 1.00D-01 BMatC= 1.42D-02 BMatP= 1.47D-02
 IDIUse=3 WtCom= 7.05D-01 WtEn= 2.95D-01
 Coeff-Com:  0.495D+00 0.505D+00
 Coeff-En:   0.491D+00 0.509D+00
 Coeff:      0.494D+00 0.506D+00
 Gap=     0.779 Goal=   None    Shift=    0.000
 RMSDP=1.64D-02 MaxDP=5.68D-02 DE=-6.40D-04 OVMax= 0.00D+00

 Cycle   3  Pass 0  IDiag  1:
 E= -38.1669710232654     Delta-E=       -0.016890794579 Rises=F Damp=F
 DIIS: error= 2.20D-04 at cycle   3 NSaved=   3.
 NSaved= 3 IEnMin= 3 EnMin= -38.1669710232654     IErMin= 3 ErrMin= 2.20D-04
 ErrMax= 2.20D-04 EMaxC= 1.00D-01 BMatC= 3.49D-07 BMatP= 1.42D-02
 IDIUse=3 WtCom= 9.98D-01 WtEn= 2.20D-03
 Coeff-Com:  0.105D-01 0.145D-01 0.975D+00
 Coeff-En:   0.000D+00 0.000D+00 0.100D+01
 Coeff:      0.105D-01 0.145D-01 0.975D+00
 Gap=     0.781 Goal=   None    Shift=    0.000
 RMSDP=6.72D-05 MaxDP=2.65D-04 DE=-1.69D-02 OVMax= 0.00D+00

 Cycle   4  Pass 0  IDiag  1:
 E= -38.1669713049058     Delta-E=       -0.000000281640 Rises=F Damp=F
 DIIS: error= 2.18D-07 at cycle   4 NSaved=   4.
 NSaved= 4 IEnMin= 4 EnMin= -38.1669713049058     IErMin= 4 ErrMin= 2.18D-07
 ErrMax= 2.18D-07 EMaxC= 1.00D-01 BMatC= 5.81D-13 BMatP= 3.49D-07
 IDIUse=1 WtCom= 1.00D+00 WtEn= 0.00D+00
 Coeff-Com: -0.320D-03-0.433D-03-0.289D-01 0.103D+01
 Coeff:     -0.320D-03-0.433D-03-0.289D-01 0.103D+01
 Gap=     0.781 Goal=   None    Shift=    0.000
 RMSDP=1.43D-07 MaxDP=4.71D-07 DE=-2.82D-07 OVMax= 0.00D+00

 Initial convergence to 1.0D-05 achieved.  Increase integral accuracy.
 Cycle   5  Pass 1  IDiag  1:
 E= -38.1669243828076     Delta-E=        0.000046922098 Rises=F Damp=F
 DIIS: error= 4.97D-06 at cycle   1 NSaved=   1.
 NSaved= 1 IEnMin= 1 EnMin= -38.1669243828076     IErMin= 1 ErrMin= 4.97D-06
 ErrMax= 4.97D-06 EMaxC= 1.00D-01 BMatC= 3.69D-10 BMatP= 3.69D-10
 IDIUse=1 WtCom= 1.00D+00 WtEn= 0.00D+00
 Coeff-Com:  0.100D+01
 Coeff:      0.100D+01
 Gap=     0.781 Goal=   None    Shift=    0.000
 RMSDP=1.43D-07 MaxDP=4.71D-07 DE= 4.69D-05 OVMax= 0.00D+00

 Cycle   6  Pass 1  IDiag  1:
 E= -38.1669243828226     Delta-E=       -0.000000000015 Rises=F Damp=F
 DIIS: error= 4.76D-06 at cycle   2 NSaved=   2.
 NSaved= 2 IEnMin= 2 EnMin= -38.1669243828226     IErMin= 2 ErrMin= 4.76D-06
 ErrMax= 4.76D-06 EMaxC= 1.00D-01 BMatC= 3.65D-10 BMatP= 3.69D-10
 IDIUse=1 WtCom= 1.00D+00 WtEn= 0.00D+00
 Coeff-Com:  0.499D+00 0.501D+00
 Coeff:      0.499D+00 0.501D+00
 Gap=     0.781 Goal=   None    Shift=    0.000
 RMSDP=2.62D-06 MaxDP=9.23D-06 DE=-1.50D-11 OVMax= 0.00D+00

 Cycle   7  Pass 1  IDiag  1:
 E= -38.1669243832554     Delta-E=       -0.000000000433 Rises=F Damp=F
 DIIS: error= 2.44D-08 at cycle   3 NSaved=   3.
 NSaved= 3 IEnMin= 3 EnMin= -38.1669243832554     IErMin= 3 ErrMin= 2.44D-08
 ErrMax= 2.44D-08 EMaxC= 1.00D-01 BMatC= 4.31D-15 BMatP= 3.65D-10
 IDIUse=1 WtCom= 1.00D+00 WtEn= 0.00D+00
 Coeff-Com:  0.132D-01 0.126D-01 0.974D+00
 Coeff:      0.132D-01 0.126D-01 0.974D+00
 Gap=     0.781 Goal=   None    Shift=    0.000
 RMSDP=3.82D-09 MaxDP=1.35D-08 DE=-4.33D-10 OVMax= 0.00D+00

 SCF Done:  E(RXa) =  -38.1669243833     A.U. after    7 cycles
             Convg  =    0.3821D-08             -V/T =  2.0131
 KE= 3.767466306705D+01 PE=-1.161378012328D+02 EE= 2.660969523086D+01
 Leave Link  502 at Sat Dec 14 19:02:25 2019, MaxMem=   33554432 cpu:       0.0
 (Enter E:\g09w\l601.exe)
 Copying SCF densities to generalized density rwf, IOpCl= 0 IROHF=0.

 **********************************************************************

            Population analysis using the SCF density.

 **********************************************************************

 Orbital symmetries:
       Occupied  (A) (A) (T) (T) (T)
       Virtual   (T) (T) (T) (A)
 The electronic state is 1-A.
 Alpha  occ. eigenvalues --   -9.23967  -0.54108  -0.26418  -0.26418  -0.26418
 Alpha virt. eigenvalues --    0.51720   0.51720   0.51720   0.53608
          Condensed to atoms (all electrons):
              1          2          3          4          5
     1  C    4.781345   0.384507   0.384507   0.384507   0.384507
     2  H    0.384507   0.587773  -0.017375  -0.017375  -0.017375
     3  H    0.384507  -0.017375   0.587773  -0.017375  -0.017375
     4  H    0.384507  -0.017375  -0.017375   0.587773  -0.017375
     5  H    0.384507  -0.017375  -0.017375  -0.017375   0.587773
 Mulliken atomic charges:
              1
     1  C   -0.319374
     2  H    0.079843
     3  H    0.079843
     4  H    0.079843
     5  H    0.079843
 Sum of Mulliken atomic charges =   0.00000
 Mulliken charges with hydrogens summed into heavy atoms:
              1
     1  C    0.000000
 Sum of Mulliken charges with hydrogens summed into heavy atoms =   0.00000
 Electronic spatial extent (au):  <R**2>=             33.6627
 Charge=              0.0000 electrons
 Dipole moment (field-independent basis, Debye):
    X=              0.0000    Y=              0.0000    Z=              0.0000  Tot=              0.0000
 Quadrupole moment (field-independent basis, Debye-Ang):
   XX=             -7.7602   YY=             -7.7602   ZZ=             -7.7602
   XY=              0.0000   XZ=              0.0000   YZ=              0.0000
 Traceless Quadrupole moment (field-independent basis, Debye-Ang):
   XX=              0.0000   YY=              0.0000   ZZ=              0.0000
   XY=              0.0000   XZ=              0.0000   YZ=              0.0000
 Octapole moment (field-independent basis, Debye-Ang**2):
  XXX=              0.0000  YYY=              0.0000  ZZZ=              0.0000  XYY=              0.0000
  XXY=              0.0000  XXZ=              0.0000  XZZ=              0.0000  YZZ=              0.0000
  YYZ=              0.0000  XYZ=              0.6428
 Hexadecapole moment (field-independent basis, Debye-Ang**3):
 XXXX=            -12.9036 YYYY=            -12.9036 ZZZZ=            -12.9036 XXXY=              0.0000
 XXXZ=              0.0000 YYYX=              0.0000 YYYZ=              0.0000 ZZZX=              0.0000
 ZZZY=              0.0000 XXYY=             -3.8976 XXZZ=             -3.8976 YYZZ=             -3.8976
 XXYZ=              0.0000 YYXZ=              0.0000 ZZXY=              0.0000
 N-N= 1.368651855168D+01 E-N=-1.161378012777D+02  KE= 3.767466306705D+01
 Symmetry A    KE= 3.200714909114D+01
 Symmetry B1   KE= 1.889171325301D+00
 Symmetry B2   KE= 1.889171325301D+00
 Symmetry B3   KE= 1.889171325301D+00
 No NMR shielding tensors so no spin-rotation constants.
 Leave Link  601 at Sat Dec 14 19:02:26 2019, MaxMem=   33554432 cpu:       0.0
 (Enter E:\g09w\l9999.exe)
 1|1|UNPC-XINGXUHAI|SP|RXAlphaXa|STO-2G|C1H4|ENIGM|14-Dec-2019|0||#p ge
 om=connectivity output=wfn sto-2g xalpha||Title Card Required||0,1|C,0
 ,-0.49780383,0.30014641,0.|H,0,-0.1411494,-0.70866359,0.|H,0,-0.141130
 99,0.8045446,0.8736515|H,0,-0.14113099,0.8045446,-0.8736515|H,0,-1.567
 80383,0.30015959,0.||Version=IA32W-G09RevA.02|State=1-A|HF=-38.1669244
 |RMSD=3.821e-009|Dipole=0.,0.,0.|Quadrupole=0.,0.,0.,0.,0.,0.|PG=T [O(
 C1),4C3(H1)]||@

 Writing a WFN file to  .
